<?xml version="1.0" encoding="UTF-8"?>

<!-- generated on Пт 31 май 2019 19:16:58 by Eclipse SUMO GUI Version v1_1_0+1541-bb9937f
<configuration xmlns:xsi="http://www.w3.org/2001/XMLSchema-instance" xsi:noNamespaceSchemaLocation="http://sumo.dlr.de/xsd/sumoConfiguration.xsd">

    <input>
        <net-file value="/home/gosha/workspace/pycharm/adaptive-tls/networks/montgomery_county/moco.net.xml"/>
        <route-files value="/home/gosha/workspace/pycharm/adaptive-tls/networks/montgomery_county/moco_jtr_out.rou.xml"/>
        <additional-files value="/home/gosha/workspace/pycharm/adaptive-tls/networks/montgomery_county/moco.det.xml"/>
    </input>

    <output>
        <queue-output value="/home/gosha/workspace/pycharm/adaptive-tls/networks/montgomery_county/queues.xml"/>
    </output>

    <time>
        <begin value="0"/>
        <end value="7300"/>
    </time>

    <processing>
        <time-to-teleport value="-1"/>
    </processing>

    <report>
        <no-warnings value="true"/>
        <no-step-log value="true"/>
    </report>

    <traci_server>
        <remote-port value="58935"/>
    </traci_server>

    <gui_only>
        <quit-on-end value="true"/>
        <start value="true"/>
    </gui_only>

</configuration>
-->

<queue-export xmlns:xsi="http://www.w3.org/2001/XMLSchema-instance" xsi:noNamespaceSchemaLocation="http://sumo.dlr.de/xsd/queue_file.xsd">
    <data timestep="0.00">
        <lanes/>
    </data>
    <data timestep="1.00">
        <lanes/>
    </data>
    <data timestep="2.00">
        <lanes/>
    </data>
    <data timestep="3.00">
        <lanes/>
    </data>
    <data timestep="4.00">
        <lanes/>
    </data>
    <data timestep="5.00">
        <lanes/>
    </data>
    <data timestep="6.00">
        <lanes/>
    </data>
    <data timestep="7.00">
        <lanes/>
    </data>
    <data timestep="8.00">
        <lanes/>
    </data>
    <data timestep="9.00">
        <lanes>
            <lane id="143009954_0" queueing_time="0.00" queueing_length="0.00" queueing_length_experimental="7.19"/>
            <lane id="5965712_1" queueing_time="0.00" queueing_length="0.00" queueing_length_experimental="7.62"/>
        </lanes>
    </data>
    <data timestep="10.00">
        <lanes>
            <lane id="143009954_0" queueing_time="0.00" queueing_length="0.00" queueing_length_experimental="6.52"/>
            <lane id="5965712_1" queueing_time="0.00" queueing_length="0.00" queueing_length_experimental="7.01"/>
        </lanes>
    </data>
    <data timestep="11.00">
        <lanes>
            <lane id="143009954_0" queueing_time="0.00" queueing_length="0.00" queueing_length_experimental="6.20"/>
            <lane id="5965712_1" queueing_time="0.00" queueing_length="0.00" queueing_length_experimental="6.62"/>
        </lanes>
    </data>
    <data timestep="12.00">
        <lanes>
            <lane id="143009954_0" queueing_time="0.00" queueing_length="0.00" queueing_length_experimental="6.07"/>
            <lane id="5965712_1" queueing_time="0.00" queueing_length="0.00" queueing_length_experimental="6.38"/>
        </lanes>
    </data>
    <data timestep="13.00">
        <lanes>
            <lane id="143009954_0" queueing_time="1.00" queueing_length="6.02" queueing_length_experimental="6.02"/>
            <lane id="5965712_1" queueing_time="0.00" queueing_length="0.00" queueing_length_experimental="6.23"/>
        </lanes>
    </data>
    <data timestep="14.00">
        <lanes>
            <lane id="143009954_0" queueing_time="2.00" queueing_length="6.00" queueing_length_experimental="6.00"/>
            <lane id="5965712_1" queueing_time="1.00" queueing_length="6.14" queueing_length_experimental="6.14"/>
        </lanes>
    </data>
    <data timestep="15.00">
        <lanes>
            <lane id="5965712_1" queueing_time="2.00" queueing_length="6.09" queueing_length_experimental="6.09"/>
        </lanes>
    </data>
    <data timestep="16.00">
        <lanes>
            <lane id="5965712_1" queueing_time="3.00" queueing_length="6.05" queueing_length_experimental="6.05"/>
        </lanes>
    </data>
    <data timestep="17.00">
        <lanes>
            <lane id="5965712_1" queueing_time="4.00" queueing_length="6.03" queueing_length_experimental="6.03"/>
            <lane id="5974128_0" queueing_time="0.00" queueing_length="0.00" queueing_length_experimental="6.92"/>
        </lanes>
    </data>
    <data timestep="18.00">
        <lanes>
            <lane id="5965712_1" queueing_time="5.00" queueing_length="6.02" queueing_length_experimental="6.02"/>
            <lane id="5974128_0" queueing_time="0.00" queueing_length="0.00" queueing_length_experimental="6.39"/>
        </lanes>
    </data>
    <data timestep="19.00">
        <lanes>
            <lane id="5965712_1" queueing_time="6.00" queueing_length="6.01" queueing_length_experimental="6.01"/>
            <lane id="5974128_0" queueing_time="0.00" queueing_length="0.00" queueing_length_experimental="6.14"/>
        </lanes>
    </data>
    <data timestep="20.00">
        <lanes>
            <lane id="5965712_1" queueing_time="7.00" queueing_length="6.01" queueing_length_experimental="6.01"/>
            <lane id="5974128_0" queueing_time="1.00" queueing_length="6.04" queueing_length_experimental="6.04"/>
        </lanes>
    </data>
    <data timestep="21.00">
        <lanes>
            <lane id="5965712_1" queueing_time="8.00" queueing_length="6.01" queueing_length_experimental="6.01"/>
            <lane id="5974128_0" queueing_time="2.00" queueing_length="6.01" queueing_length_experimental="6.01"/>
        </lanes>
    </data>
    <data timestep="22.00">
        <lanes>
            <lane id="5965712_1" queueing_time="9.00" queueing_length="6.01" queueing_length_experimental="6.01"/>
            <lane id="5974128_0" queueing_time="3.00" queueing_length="6.00" queueing_length_experimental="6.00"/>
            <lane id="gneE17.147_2" queueing_time="0.00" queueing_length="0.00" queueing_length_experimental="8.13"/>
        </lanes>
    </data>
    <data timestep="23.00">
        <lanes>
            <lane id="5965712_1" queueing_time="10.00" queueing_length="6.01" queueing_length_experimental="6.01"/>
            <lane id="5974128_0" queueing_time="4.00" queueing_length="6.00" queueing_length_experimental="6.00"/>
            <lane id="gneE17.147_2" queueing_time="0.00" queueing_length="0.00" queueing_length_experimental="7.33"/>
        </lanes>
    </data>
    <data timestep="24.00">
        <lanes>
            <lane id="5965712_1" queueing_time="11.00" queueing_length="6.01" queueing_length_experimental="6.01"/>
            <lane id="5974128_0" queueing_time="5.00" queueing_length="6.00" queueing_length_experimental="6.00"/>
            <lane id="gneE17.147_2" queueing_time="0.00" queueing_length="0.00" queueing_length_experimental="6.83"/>
        </lanes>
    </data>
    <data timestep="25.00">
        <lanes>
            <lane id="5965712_1" queueing_time="12.00" queueing_length="6.01" queueing_length_experimental="6.01"/>
            <lane id="5974128_0" queueing_time="6.00" queueing_length="6.00" queueing_length_experimental="6.00"/>
            <lane id="gneE17.147_2" queueing_time="0.00" queueing_length="0.00" queueing_length_experimental="6.51"/>
        </lanes>
    </data>
    <data timestep="26.00">
        <lanes>
            <lane id="5965712_1" queueing_time="13.00" queueing_length="6.01" queueing_length_experimental="6.01"/>
            <lane id="5974128_0" queueing_time="7.00" queueing_length="6.00" queueing_length_experimental="6.00"/>
            <lane id="gneE17.147_2" queueing_time="0.00" queueing_length="0.00" queueing_length_experimental="6.31"/>
        </lanes>
    </data>
    <data timestep="27.00">
        <lanes>
            <lane id="5965712_1" queueing_time="14.00" queueing_length="6.01" queueing_length_experimental="6.01"/>
            <lane id="5974128_0" queueing_time="8.00" queueing_length="6.00" queueing_length_experimental="6.00"/>
            <lane id="gneE17.147_2" queueing_time="0.00" queueing_length="0.00" queueing_length_experimental="6.19"/>
        </lanes>
    </data>
    <data timestep="28.00">
        <lanes>
            <lane id="5965712_1" queueing_time="15.00" queueing_length="6.01" queueing_length_experimental="6.01"/>
            <lane id="5974128_0" queueing_time="9.00" queueing_length="6.00" queueing_length_experimental="6.00"/>
            <lane id="gneE17.147_2" queueing_time="1.00" queueing_length="6.11" queueing_length_experimental="6.11"/>
        </lanes>
    </data>
    <data timestep="29.00">
        <lanes>
            <lane id="5965712_1" queueing_time="16.00" queueing_length="6.01" queueing_length_experimental="6.01"/>
            <lane id="5974128_0" queueing_time="10.00" queueing_length="6.00" queueing_length_experimental="6.00"/>
            <lane id="gneE17.147_2" queueing_time="2.00" queueing_length="6.07" queueing_length_experimental="6.07"/>
        </lanes>
    </data>
    <data timestep="30.00">
        <lanes>
            <lane id="5965712_1" queueing_time="17.00" queueing_length="6.01" queueing_length_experimental="6.01"/>
            <lane id="5974128_0" queueing_time="11.00" queueing_length="6.00" queueing_length_experimental="6.00"/>
            <lane id="gneE17.147_2" queueing_time="3.00" queueing_length="6.04" queueing_length_experimental="6.04"/>
        </lanes>
    </data>
    <data timestep="31.00">
        <lanes>
            <lane id="5965712_1" queueing_time="18.00" queueing_length="6.01" queueing_length_experimental="6.01"/>
            <lane id="5974128_0" queueing_time="12.00" queueing_length="6.00" queueing_length_experimental="6.00"/>
            <lane id="gneE17.147_2" queueing_time="4.00" queueing_length="6.03" queueing_length_experimental="6.03"/>
            <lane id="gneE17.147_3" queueing_time="0.00" queueing_length="0.00" queueing_length_experimental="8.32"/>
        </lanes>
    </data>
    <data timestep="32.00">
        <lanes>
            <lane id="5965712_1" queueing_time="19.00" queueing_length="6.01" queueing_length_experimental="6.01"/>
            <lane id="5974128_0" queueing_time="13.00" queueing_length="6.00" queueing_length_experimental="6.00"/>
            <lane id="gneE17.147_2" queueing_time="5.00" queueing_length="6.02" queueing_length_experimental="6.02"/>
            <lane id="gneE17.147_3" queueing_time="0.00" queueing_length="0.00" queueing_length_experimental="7.46"/>
        </lanes>
    </data>
    <data timestep="33.00">
        <lanes>
            <lane id="5965712_1" queueing_time="20.00" queueing_length="6.01" queueing_length_experimental="6.01"/>
            <lane id="5974128_0" queueing_time="14.00" queueing_length="6.00" queueing_length_experimental="6.00"/>
            <lane id="gneE17.147_2" queueing_time="6.00" queueing_length="6.01" queueing_length_experimental="6.01"/>
            <lane id="gneE17.147_3" queueing_time="0.00" queueing_length="0.00" queueing_length_experimental="6.91"/>
        </lanes>
    </data>
    <data timestep="34.00">
        <lanes>
            <lane id="5965712_1" queueing_time="21.00" queueing_length="6.01" queueing_length_experimental="6.01"/>
            <lane id="5974128_0" queueing_time="15.00" queueing_length="6.00" queueing_length_experimental="6.00"/>
            <lane id="gneE17.147_2" queueing_time="7.00" queueing_length="6.01" queueing_length_experimental="6.01"/>
            <lane id="gneE17.147_3" queueing_time="0.00" queueing_length="0.00" queueing_length_experimental="6.56"/>
        </lanes>
    </data>
    <data timestep="35.00">
        <lanes>
            <lane id="5965712_1" queueing_time="22.00" queueing_length="6.01" queueing_length_experimental="6.01"/>
            <lane id="gneE17.147_2" queueing_time="8.00" queueing_length="6.01" queueing_length_experimental="6.01"/>
            <lane id="gneE17.147_3" queueing_time="0.00" queueing_length="0.00" queueing_length_experimental="6.34"/>
        </lanes>
    </data>
    <data timestep="36.00">
        <lanes>
            <lane id="5965712_1" queueing_time="23.00" queueing_length="6.01" queueing_length_experimental="6.01"/>
            <lane id="gneE17.147_2" queueing_time="9.00" queueing_length="6.01" queueing_length_experimental="6.01"/>
            <lane id="gneE17.147_3" queueing_time="0.00" queueing_length="0.00" queueing_length_experimental="6.21"/>
        </lanes>
    </data>
    <data timestep="37.00">
        <lanes>
            <lane id="5965712_1" queueing_time="24.00" queueing_length="6.01" queueing_length_experimental="6.01"/>
            <lane id="gneE17.147_2" queueing_time="10.00" queueing_length="6.01" queueing_length_experimental="17.47"/>
            <lane id="gneE17.147_3" queueing_time="1.00" queueing_length="6.13" queueing_length_experimental="6.13"/>
        </lanes>
    </data>
    <data timestep="38.00">
        <lanes>
            <lane id="50846720#4.128_0" queueing_time="0.00" queueing_length="0.00" queueing_length_experimental="7.29"/>
            <lane id="5965712_1" queueing_time="25.00" queueing_length="6.01" queueing_length_experimental="6.01"/>
            <lane id="gneE17.147_2" queueing_time="11.00" queueing_length="6.01" queueing_length_experimental="16.56"/>
            <lane id="gneE17.147_3" queueing_time="2.00" queueing_length="6.08" queueing_length_experimental="6.08"/>
        </lanes>
    </data>
    <data timestep="39.00">
        <lanes>
            <lane id="50846720#4.128_0" queueing_time="0.00" queueing_length="0.00" queueing_length_experimental="6.57"/>
            <lane id="5965712_1" queueing_time="26.00" queueing_length="6.01" queueing_length_experimental="6.01"/>
            <lane id="gneE17.147_2" queueing_time="12.00" queueing_length="6.01" queueing_length_experimental="15.97"/>
            <lane id="gneE17.147_3" queueing_time="3.00" queueing_length="6.05" queueing_length_experimental="6.05"/>
        </lanes>
    </data>
    <data timestep="40.00">
        <lanes>
            <lane id="5965712_1" queueing_time="27.00" queueing_length="6.01" queueing_length_experimental="6.01"/>
            <lane id="gneE17.147_2" queueing_time="13.00" queueing_length="6.01" queueing_length_experimental="15.60"/>
            <lane id="gneE17.147_3" queueing_time="4.00" queueing_length="6.03" queueing_length_experimental="6.03"/>
        </lanes>
    </data>
    <data timestep="41.00">
        <lanes>
            <lane id="143009954_1" queueing_time="0.00" queueing_length="0.00" queueing_length_experimental="7.20"/>
            <lane id="5965712_1" queueing_time="28.00" queueing_length="6.01" queueing_length_experimental="6.01"/>
            <lane id="gneE17.147_2" queueing_time="14.00" queueing_length="6.01" queueing_length_experimental="15.37"/>
            <lane id="gneE17.147_3" queueing_time="5.00" queueing_length="6.02" queueing_length_experimental="6.02"/>
        </lanes>
    </data>
    <data timestep="42.00">
        <lanes>
            <lane id="143009954_1" queueing_time="0.00" queueing_length="0.00" queueing_length_experimental="6.52"/>
            <lane id="243728742#0.50_0" queueing_time="0.00" queueing_length="0.00" queueing_length_experimental="7.39"/>
            <lane id="5965712_1" queueing_time="29.00" queueing_length="6.01" queueing_length_experimental="6.01"/>
            <lane id="gneE17.147_2" queueing_time="15.00" queueing_length="6.01" queueing_length_experimental="15.23"/>
            <lane id="gneE17.147_3" queueing_time="6.00" queueing_length="6.01" queueing_length_experimental="6.01"/>
        </lanes>
    </data>
    <data timestep="43.00">
        <lanes>
            <lane id="116069075#1.338_1" queueing_time="0.00" queueing_length="0.00" queueing_length_experimental="7.97"/>
            <lane id="143009954_1" queueing_time="0.00" queueing_length="0.00" queueing_length_experimental="6.20"/>
            <lane id="243728742#0.50_0" queueing_time="0.00" queueing_length="0.00" queueing_length_experimental="6.54"/>
            <lane id="50846782#2.53_0" queueing_time="0.00" queueing_length="0.00" queueing_length_experimental="6.76"/>
            <lane id="5965712_1" queueing_time="30.00" queueing_length="6.01" queueing_length_experimental="6.01"/>
            <lane id="gneE17.147_2" queueing_time="16.00" queueing_length="15.14" queueing_length_experimental="15.14"/>
            <lane id="gneE17.147_3" queueing_time="7.00" queueing_length="6.01" queueing_length_experimental="6.01"/>
        </lanes>
    </data>
    <data timestep="44.00">
        <lanes>
            <lane id="116069075#1.338_1" queueing_time="0.00" queueing_length="0.00" queueing_length_experimental="7.23"/>
            <lane id="143009954_1" queueing_time="0.00" queueing_length="0.00" queueing_length_experimental="6.07"/>
            <lane id="243728742#0.50_0" queueing_time="0.00" queueing_length="0.00" queueing_length_experimental="5.99"/>
            <lane id="49187078#3.591_0" queueing_time="0.00" queueing_length="0.00" queueing_length_experimental="7.28"/>
            <lane id="50846782#2.53_0" queueing_time="0.00" queueing_length="0.00" queueing_length_experimental="6.13"/>
            <lane id="5965712_1" queueing_time="31.00" queueing_length="6.01" queueing_length_experimental="6.01"/>
            <lane id="gneE17.147_2" queueing_time="17.00" queueing_length="15.09" queueing_length_experimental="15.09"/>
            <lane id="gneE17.147_3" queueing_time="8.00" queueing_length="6.01" queueing_length_experimental="6.01"/>
        </lanes>
    </data>
    <data timestep="45.00">
        <lanes>
            <lane id="143009954_1" queueing_time="1.00" queueing_length="6.02" queueing_length_experimental="6.02"/>
            <lane id="243728742#0.50_0" queueing_time="0.00" queueing_length="0.00" queueing_length_experimental="5.65"/>
            <lane id="49187078#3.591_0" queueing_time="0.00" queueing_length="0.00" queueing_length_experimental="6.56"/>
            <lane id="50846782#2.53_0" queueing_time="0.00" queueing_length="0.00" queueing_length_experimental="5.74"/>
            <lane id="5965712_1" queueing_time="32.00" queueing_length="6.01" queueing_length_experimental="6.01"/>
            <lane id="gneE17.147_2" queueing_time="18.00" queueing_length="15.06" queueing_length_experimental="15.06"/>
            <lane id="gneE17.147_3" queueing_time="9.00" queueing_length="6.01" queueing_length_experimental="17.42"/>
        </lanes>
    </data>
    <data timestep="46.00">
        <lanes>
            <lane id="143009954_1" queueing_time="2.00" queueing_length="6.00" queueing_length_experimental="6.00"/>
            <lane id="243728742#0.50_0" queueing_time="0.00" queueing_length="0.00" queueing_length_experimental="5.44"/>
            <lane id="49187078#3.591_0" queueing_time="0.00" queueing_length="0.00" queueing_length_experimental="6.22"/>
            <lane id="50846782#2.53_0" queueing_time="0.00" queueing_length="0.00" queueing_length_experimental="5.49"/>
            <lane id="5965712_1" queueing_time="33.00" queueing_length="6.01" queueing_length_experimental="6.01"/>
            <lane id="gneE17.147_2" queueing_time="19.00" queueing_length="15.04" queueing_length_experimental="15.04"/>
            <lane id="gneE17.147_3" queueing_time="10.00" queueing_length="6.01" queueing_length_experimental="16.53"/>
        </lanes>
    </data>
    <data timestep="47.00">
        <lanes>
            <lane id="143009954_1" queueing_time="3.00" queueing_length="6.00" queueing_length_experimental="6.00"/>
            <lane id="49187078#3.591_0" queueing_time="0.00" queueing_length="0.00" queueing_length_experimental="6.07"/>
            <lane id="50846782#2.53_0" queueing_time="0.00" queueing_length="0.00" queueing_length_experimental="5.34"/>
            <lane id="5965712_1" queueing_time="34.00" queueing_length="6.01" queueing_length_experimental="6.01"/>
            <lane id="gneE17.147_2" queueing_time="20.00" queueing_length="15.03" queueing_length_experimental="15.03"/>
            <lane id="gneE17.147_3" queueing_time="11.00" queueing_length="6.01" queueing_length_experimental="15.95"/>
        </lanes>
    </data>
    <data timestep="48.00">
        <lanes>
            <lane id="143009954_1" queueing_time="4.00" queueing_length="6.00" queueing_length_experimental="6.00"/>
            <lane id="49187078#3.591_0" queueing_time="1.00" queueing_length="6.02" queueing_length_experimental="6.02"/>
            <lane id="50846782#2.53_0" queueing_time="1.00" queueing_length="5.24" queueing_length_experimental="5.24"/>
            <lane id="5965712_1" queueing_time="35.00" queueing_length="6.01" queueing_length_experimental="6.01"/>
            <lane id="gneE17.147_2" queueing_time="21.00" queueing_length="15.02" queueing_length_experimental="15.02"/>
            <lane id="gneE17.147_3" queueing_time="12.00" queueing_length="6.01" queueing_length_experimental="15.59"/>
        </lanes>
    </data>
    <data timestep="49.00">
        <lanes>
            <lane id="143009954_1" queueing_time="5.00" queueing_length="6.00" queueing_length_experimental="6.00"/>
            <lane id="243728742#0.50_2" queueing_time="0.00" queueing_length="0.00" queueing_length_experimental="8.23"/>
            <lane id="49187078#3.591_0" queueing_time="2.00" queueing_length="6.00" queueing_length_experimental="6.00"/>
            <lane id="50846782#2.53_0" queueing_time="2.00" queueing_length="5.19" queueing_length_experimental="5.19"/>
            <lane id="5965712_1" queueing_time="36.00" queueing_length="6.01" queueing_length_experimental="6.01"/>
            <lane id="gneE17.147_2" queueing_time="22.00" queueing_length="15.02" queueing_length_experimental="15.02"/>
            <lane id="gneE17.147_3" queueing_time="13.00" queueing_length="6.01" queueing_length_experimental="15.36"/>
        </lanes>
    </data>
    <data timestep="50.00">
        <lanes>
            <lane id="143009954_0" queueing_time="0.00" queueing_length="0.00" queueing_length_experimental="8.08"/>
            <lane id="143009954_1" queueing_time="6.00" queueing_length="6.00" queueing_length_experimental="6.00"/>
            <lane id="243728742#0.50_2" queueing_time="0.00" queueing_length="0.00" queueing_length_experimental="7.40"/>
            <lane id="49187078#3.591_0" queueing_time="3.00" queueing_length="6.00" queueing_length_experimental="6.00"/>
            <lane id="50846782#2.53_0" queueing_time="3.00" queueing_length="5.15" queueing_length_experimental="5.15"/>
            <lane id="5965712_1" queueing_time="37.00" queueing_length="6.01" queueing_length_experimental="6.01"/>
            <lane id="gneE17.147_2" queueing_time="23.00" queueing_length="15.01" queueing_length_experimental="15.01"/>
            <lane id="gneE17.147_3" queueing_time="14.00" queueing_length="6.01" queueing_length_experimental="15.22"/>
        </lanes>
    </data>
    <data timestep="51.00">
        <lanes>
            <lane id="143009954_0" queueing_time="0.00" queueing_length="0.00" queueing_length_experimental="7.31"/>
            <lane id="143009954_1" queueing_time="7.00" queueing_length="6.00" queueing_length_experimental="6.00"/>
            <lane id="243728742#0.50_2" queueing_time="0.00" queueing_length="0.00" queueing_length_experimental="6.87"/>
            <lane id="49187078#3.591_0" queueing_time="4.00" queueing_length="6.00" queueing_length_experimental="6.00"/>
            <lane id="50846782#2.53_0" queueing_time="4.00" queueing_length="5.13" queueing_length_experimental="5.13"/>
            <lane id="5965712_1" queueing_time="38.00" queueing_length="6.01" queueing_length_experimental="6.01"/>
            <lane id="gneE17.147_2" queueing_time="24.00" queueing_length="15.01" queueing_length_experimental="15.01"/>
            <lane id="gneE17.147_3" queueing_time="15.00" queueing_length="15.14" queueing_length_experimental="15.14"/>
        </lanes>
    </data>
    <data timestep="52.00">
        <lanes>
            <lane id="143009954_0" queueing_time="0.00" queueing_length="0.00" queueing_length_experimental="6.81"/>
            <lane id="143009954_1" queueing_time="8.00" queueing_length="6.00" queueing_length_experimental="6.00"/>
            <lane id="243728741#0_0" queueing_time="0.00" queueing_length="0.00" queueing_length_experimental="8.28"/>
            <lane id="243728742#0.50_2" queueing_time="0.00" queueing_length="0.00" queueing_length_experimental="6.54"/>
            <lane id="49187078#3.591_0" queueing_time="5.00" queueing_length="6.00" queueing_length_experimental="6.00"/>
            <lane id="50846782#2.53_0" queueing_time="5.00" queueing_length="5.12" queueing_length_experimental="5.12"/>
            <lane id="5965712_1" queueing_time="39.00" queueing_length="6.01" queueing_length_experimental="6.01"/>
            <lane id="gneE17.147_2" queueing_time="25.00" queueing_length="15.01" queueing_length_experimental="15.01"/>
            <lane id="gneE17.147_3" queueing_time="16.00" queueing_length="15.09" queueing_length_experimental="15.09"/>
        </lanes>
    </data>
    <data timestep="53.00">
        <lanes>
            <lane id="143009954_0" queueing_time="0.00" queueing_length="0.00" queueing_length_experimental="6.50"/>
            <lane id="143009954_1" queueing_time="9.00" queueing_length="6.00" queueing_length_experimental="6.00"/>
            <lane id="243728741#0_0" queueing_time="0.00" queueing_length="0.00" queueing_length_experimental="7.43"/>
            <lane id="243728742#0.50_2" queueing_time="0.00" queueing_length="0.00" queueing_length_experimental="6.33"/>
            <lane id="49187078#3.591_0" queueing_time="6.00" queueing_length="6.00" queueing_length_experimental="6.00"/>
            <lane id="50846782#2.53_0" queueing_time="6.00" queueing_length="5.11" queueing_length_experimental="5.11"/>
            <lane id="5965712_1" queueing_time="40.00" queueing_length="6.01" queueing_length_experimental="6.01"/>
            <lane id="gneE17.147_2" queueing_time="26.00" queueing_length="15.01" queueing_length_experimental="25.65"/>
            <lane id="gneE17.147_3" queueing_time="17.00" queueing_length="15.05" queueing_length_experimental="15.05"/>
        </lanes>
    </data>
    <data timestep="54.00">
        <lanes>
            <lane id="143009954_0" queueing_time="0.00" queueing_length="0.00" queueing_length_experimental="6.30"/>
            <lane id="143009954_1" queueing_time="10.00" queueing_length="6.00" queueing_length_experimental="6.00"/>
            <lane id="243728741#0_0" queueing_time="0.00" queueing_length="0.00" queueing_length_experimental="6.89"/>
            <lane id="243728742#0.50_2" queueing_time="0.00" queueing_length="0.00" queueing_length_experimental="6.20"/>
            <lane id="49187078#3.591_0" queueing_time="7.00" queueing_length="6.00" queueing_length_experimental="6.00"/>
            <lane id="50846782#2.53_0" queueing_time="7.00" queueing_length="5.11" queueing_length_experimental="5.11"/>
            <lane id="5965712_1" queueing_time="41.00" queueing_length="6.01" queueing_length_experimental="6.01"/>
            <lane id="gneE17.147_2" queueing_time="27.00" queueing_length="15.01" queueing_length_experimental="25.03"/>
            <lane id="gneE17.147_3" queueing_time="18.00" queueing_length="15.04" queueing_length_experimental="15.04"/>
        </lanes>
    </data>
    <data timestep="55.00">
        <lanes>
            <lane id="243728742#0.50_2" queueing_time="1.00" queueing_length="6.12" queueing_length_experimental="6.12"/>
            <lane id="49187078#3.591_0" queueing_time="8.00" queueing_length="6.00" queueing_length_experimental="6.00"/>
            <lane id="50846782#2.53_0" queueing_time="8.00" queueing_length="5.11" queueing_length_experimental="5.11"/>
            <lane id="5965712_1" queueing_time="42.00" queueing_length="6.01" queueing_length_experimental="6.01"/>
            <lane id="gneE17.147_2" queueing_time="28.00" queueing_length="15.01" queueing_length_experimental="24.64"/>
            <lane id="gneE17.147_3" queueing_time="19.00" queueing_length="15.02" queueing_length_experimental="15.02"/>
        </lanes>
    </data>
    <data timestep="56.00">
        <lanes>
            <lane id="243728742#0.50_2" queueing_time="2.00" queueing_length="6.07" queueing_length_experimental="6.07"/>
            <lane id="49187078#3.591_0" queueing_time="9.00" queueing_length="6.00" queueing_length_experimental="6.00"/>
            <lane id="50846755#2.0.590_0" queueing_time="0.00" queueing_length="0.00" queueing_length_experimental="7.63"/>
            <lane id="50846782#2.53_0" queueing_time="9.00" queueing_length="5.11" queueing_length_experimental="5.11"/>
            <lane id="5965712_1" queueing_time="43.00" queueing_length="6.01" queueing_length_experimental="6.01"/>
            <lane id="gneE17.147_2" queueing_time="29.00" queueing_length="15.01" queueing_length_experimental="24.39"/>
            <lane id="gneE17.147_3" queueing_time="20.00" queueing_length="15.02" queueing_length_experimental="15.02"/>
        </lanes>
    </data>
    <data timestep="57.00">
        <lanes>
            <lane id="243728742#0.50_2" queueing_time="3.00" queueing_length="6.04" queueing_length_experimental="6.04"/>
            <lane id="243728742#0.50_4" queueing_time="0.00" queueing_length="0.00" queueing_length_experimental="7.86"/>
            <lane id="49187078#3.591_0" queueing_time="10.00" queueing_length="6.00" queueing_length_experimental="6.00"/>
            <lane id="50846755#2.0.590_0" queueing_time="0.00" queueing_length="0.00" queueing_length_experimental="7.01"/>
            <lane id="50846782#2.53_0" queueing_time="10.00" queueing_length="5.11" queueing_length_experimental="5.11"/>
            <lane id="5965712_1" queueing_time="44.00" queueing_length="6.01" queueing_length_experimental="6.01"/>
            <lane id="gneE17.147_2" queueing_time="30.00" queueing_length="15.01" queueing_length_experimental="24.24"/>